/*--------------------------------*- C++ -*----------------------------------*\
| =========                 |                                                 |
| \\        /  C            | Computational Rheology Group                    |
|  \\      /   R            | Insitute for Polymers and Composites            |
|   \\    /    H            | Univeristy of Minho                             |
|    \\  /     E            | Web:         http://www.crheo.org               |
|     \\/      0            |                                                 |
\*---------------------------------------------------------------------------*/

FoamFile
{
	location	      0/;
	object	     p+p;
	class	volScalarField;
	format	   ascii;
	version	     2.0;
}

dimensions	[0 0 0 0 0 0 0];
 
internalField 	nonuniform List<scalar>
1024
(
0.242349
0.650042
0.963318
1.20405
1.38887
1.53066
1.63942
1.72285
1.78689
1.83605
1.87381
1.90283
1.92514
1.94231
1.95551
1.96569
1.97353
1.97958
1.98424
1.98785
1.99064
1.99281
1.99448
1.99579
1.9968
1.99759
1.99821
1.99868
1.99905
1.99934
1.99954
1.99969
0.240565
0.651775
0.965402
1.20559
1.38998
1.53148
1.64002
1.7233
1.78721
1.83629
1.87398
1.90294
1.92521
1.94234
1.95552
1.96567
1.9735
1.97953
1.98419
1.98779
1.99058
1.99274
1.99441
1.99571
1.99673
1.99752
1.99814
1.99862
1.99899
1.99928
1.99948
1.99966
0.243947
0.654945
0.967887
1.20733
1.39119
1.53233
1.64061
1.7237
1.78748
1.83646
1.87409
1.903
1.92523
1.94233
1.95549
1.96563
1.97344
1.97946
1.98412
1.98772
1.9905
1.99266
1.99434
1.99564
1.99666
1.99745
1.99807
1.99856
1.99893
1.99923
1.99945
1.99965
0.25041
0.659413
0.970969
1.20949
1.3927
1.53338
1.64133
1.72418
1.7878
1.83666
1.8742
1.90306
1.92524
1.94231
1.95545
1.96557
1.97337
1.97939
1.98404
1.98763
1.99042
1.99258
1.99426
1.99556
1.99658
1.99738
1.99801
1.9985
1.99889
1.99919
1.99942
1.99963
0.258303
0.664789
0.974564
1.21198
1.39445
1.5346
1.64217
1.72475
1.78817
1.8369
1.87434
1.90312
1.92526
1.94229
1.9554
1.9655
1.97329
1.9793
1.98395
1.98754
1.99033
1.99249
1.99417
1.99548
1.99651
1.99731
1.99794
1.99844
1.99884
1.99915
1.99939
1.99962
0.266408
0.670463
0.978322
1.21454
1.39624
1.53584
1.64302
1.72532
1.78854
1.83712
1.87446
1.90317
1.92525
1.94225
1.95533
1.96542
1.9732
1.9792
1.98384
1.98744
1.99022
1.99239
1.99407
1.99539
1.99642
1.99723
1.99787
1.99838
1.99878
1.99911
1.99936
1.99959
0.273567
0.67569
0.981799
1.21685
1.39781
1.53693
1.64374
1.72578
1.78882
1.83727
1.87452
1.90316
1.9252
1.94216
1.95523
1.9653
1.97307
1.97908
1.98372
1.98731
1.9901
1.99227
1.99397
1.99529
1.99633
1.99715
1.9978
1.99831
1.99873
1.99906
1.99933
1.99957
0.278791
0.679761
0.984561
1.2186
1.39895
1.53768
1.64422
1.72605
1.78894
1.83729
1.87447
1.90307
1.92507
1.94202
1.95508
1.96514
1.97291
1.97892
1.98357
1.98717
1.98997
1.99214
1.99385
1.99518
1.99623
1.99706
1.99771
1.99824
1.99867
1.99901
1.99929
1.99954
0.281418
0.682144
0.98627
1.21959
1.39949
1.53796
1.64434
1.72605
1.78885
1.83714
1.87429
1.90287
1.92486
1.9418
1.95486
1.96493
1.97271
1.97873
1.98338
1.987
1.98981
1.992
1.99371
1.99505
1.99611
1.99695
1.99763
1.99816
1.9986
1.99896
1.99926
1.99951
0.281221
0.682592
0.98676
1.21972
1.39936
1.53774
1.64408
1.72576
1.78854
1.83682
1.87397
1.90255
1.92456
1.94151
1.95458
1.96467
1.97247
1.9785
1.98317
1.9868
1.98963
1.99183
1.99356
1.99492
1.99599
1.99685
1.99753
1.99808
1.99853
1.9989
1.99921
1.99947
0.278439
0.681194
0.986067
1.21905
1.39862
1.53704
1.64347
1.7252
1.78802
1.83634
1.87352
1.90214
1.92418
1.94116
1.95426
1.96438
1.9722
1.97825
1.98295
1.9866
1.98944
1.99166
1.99341
1.99478
1.99587
1.99674
1.99744
1.998
1.99846
1.99885
1.99917
1.99944
0.273731
0.678355
0.984432
1.21775
1.39742
1.536
1.64259
1.72446
1.78736
1.83575
1.87299
1.90167
1.92375
1.94078
1.95391
1.96406
1.97191
1.97799
1.98271
1.98639
1.98925
1.99149
1.99326
1.99465
1.99575
1.99663
1.99734
1.99792
1.9984
1.99879
1.99913
1.9994
0.268056
0.674721
0.982256
1.21612
1.39599
1.53478
1.64159
1.72363
1.78665
1.83513
1.87245
1.90119
1.92333
1.9404
1.95358
1.96376
1.97164
1.97775
1.98249
1.98619
1.98908
1.99134
1.99312
1.99452
1.99564
1.99654
1.99726
1.99785
1.99834
1.99874
1.9991
1.99937
0.262508
0.67106
0.980023
1.21448
1.3946
1.53361
1.64064
1.72285
1.786
1.83457
1.87196
1.90076
1.92295
1.94007
1.95328
1.9635
1.97141
1.97754
1.98231
1.98602
1.98893
1.9912
1.993
1.99442
1.99555
1.99646
1.99719
1.99779
1.99829
1.9987
1.99907
1.99935
0.258124
0.668119
0.97821
1.21317
1.39351
1.5327
1.6399
1.72225
1.78549
1.83414
1.87159
1.90044
1.92267
1.93982
1.95306
1.9633
1.97123
1.97739
1.98217
1.9859
1.98882
1.99111
1.99291
1.99434
1.99548
1.9964
1.99714
1.99775
1.99825
1.99867
1.99905
1.99933
0.255712
0.666487
0.977199
1.21245
1.39291
1.53219
1.63949
1.72192
1.78522
1.83391
1.87139
1.90026
1.92252
1.93969
1.95295
1.9632
1.97114
1.97731
1.9821
1.98584
1.98876
1.99106
1.99287
1.9943
1.99545
1.99637
1.99711
1.99772
1.99823
1.99866
1.99904
1.99932
0.255712
0.666487
0.977199
1.21245
1.39291
1.53219
1.63949
1.72192
1.78522
1.83391
1.87139
1.90026
1.92252
1.93969
1.95295
1.9632
1.97114
1.97731
1.9821
1.98584
1.98876
1.99106
1.99287
1.9943
1.99545
1.99637
1.99711
1.99772
1.99823
1.99866
1.99904
1.99932
0.258124
0.668119
0.97821
1.21317
1.39351
1.5327
1.6399
1.72225
1.78549
1.83414
1.87159
1.90044
1.92267
1.93982
1.95306
1.9633
1.97123
1.97739
1.98217
1.9859
1.98882
1.99111
1.99291
1.99434
1.99548
1.9964
1.99714
1.99775
1.99825
1.99867
1.99905
1.99933
0.262508
0.67106
0.980023
1.21448
1.3946
1.53361
1.64064
1.72285
1.786
1.83457
1.87196
1.90076
1.92295
1.94007
1.95328
1.9635
1.97141
1.97754
1.98231
1.98602
1.98893
1.9912
1.993
1.99442
1.99555
1.99646
1.99719
1.99779
1.99829
1.9987
1.99907
1.99935
0.268056
0.674721
0.982256
1.21612
1.39599
1.53478
1.64159
1.72363
1.78665
1.83513
1.87245
1.90119
1.92333
1.9404
1.95358
1.96376
1.97164
1.97775
1.98249
1.98619
1.98908
1.99134
1.99312
1.99452
1.99564
1.99654
1.99726
1.99785
1.99834
1.99874
1.9991
1.99937
0.273731
0.678355
0.984432
1.21775
1.39742
1.536
1.64259
1.72446
1.78736
1.83575
1.87299
1.90167
1.92375
1.94078
1.95391
1.96406
1.97191
1.97799
1.98271
1.98639
1.98925
1.99149
1.99326
1.99465
1.99575
1.99663
1.99734
1.99792
1.9984
1.99879
1.99913
1.9994
0.278439
0.681194
0.986067
1.21905
1.39862
1.53704
1.64347
1.7252
1.78802
1.83634
1.87352
1.90214
1.92418
1.94116
1.95426
1.96438
1.9722
1.97825
1.98295
1.9866
1.98944
1.99166
1.99341
1.99478
1.99587
1.99674
1.99744
1.998
1.99846
1.99885
1.99917
1.99944
0.281221
0.682592
0.98676
1.21972
1.39936
1.53774
1.64408
1.72576
1.78854
1.83682
1.87397
1.90255
1.92456
1.94151
1.95458
1.96467
1.97247
1.9785
1.98317
1.9868
1.98963
1.99183
1.99356
1.99492
1.99599
1.99685
1.99753
1.99808
1.99853
1.9989
1.99921
1.99947
0.281418
0.682144
0.98627
1.21959
1.39949
1.53796
1.64434
1.72605
1.78885
1.83714
1.87429
1.90287
1.92486
1.9418
1.95486
1.96493
1.97271
1.97873
1.98338
1.987
1.98981
1.992
1.99371
1.99505
1.99611
1.99695
1.99763
1.99816
1.9986
1.99896
1.99926
1.99951
0.278791
0.679761
0.984561
1.2186
1.39895
1.53768
1.64422
1.72605
1.78894
1.83729
1.87447
1.90307
1.92507
1.94202
1.95508
1.96514
1.97291
1.97892
1.98357
1.98717
1.98997
1.99214
1.99385
1.99518
1.99623
1.99706
1.99771
1.99824
1.99867
1.99901
1.99929
1.99954
0.273567
0.67569
0.981799
1.21685
1.39781
1.53693
1.64374
1.72578
1.78882
1.83727
1.87452
1.90316
1.9252
1.94216
1.95523
1.9653
1.97307
1.97908
1.98372
1.98731
1.9901
1.99227
1.99397
1.99529
1.99633
1.99715
1.9978
1.99831
1.99873
1.99906
1.99933
1.99957
0.266408
0.670463
0.978322
1.21454
1.39624
1.53584
1.64302
1.72532
1.78854
1.83712
1.87446
1.90317
1.92525
1.94225
1.95533
1.96542
1.9732
1.9792
1.98384
1.98744
1.99022
1.99239
1.99407
1.99539
1.99642
1.99723
1.99787
1.99838
1.99878
1.99911
1.99936
1.99959
0.258303
0.664789
0.974564
1.21198
1.39445
1.5346
1.64217
1.72475
1.78817
1.8369
1.87434
1.90312
1.92526
1.94229
1.9554
1.9655
1.97329
1.9793
1.98395
1.98754
1.99033
1.99249
1.99417
1.99548
1.99651
1.99731
1.99794
1.99844
1.99884
1.99915
1.99939
1.99962
0.25041
0.659413
0.970969
1.20949
1.3927
1.53338
1.64133
1.72418
1.7878
1.83666
1.8742
1.90306
1.92524
1.94231
1.95545
1.96557
1.97337
1.97939
1.98404
1.98763
1.99042
1.99258
1.99426
1.99556
1.99658
1.99738
1.99801
1.9985
1.99889
1.99919
1.99942
1.99963
0.243947
0.654945
0.967887
1.20733
1.39119
1.53233
1.64061
1.7237
1.78748
1.83646
1.87409
1.903
1.92523
1.94233
1.95549
1.96563
1.97344
1.97946
1.98412
1.98772
1.9905
1.99266
1.99434
1.99564
1.99666
1.99745
1.99807
1.99856
1.99893
1.99923
1.99945
1.99965
0.240565
0.651775
0.965402
1.20559
1.38998
1.53148
1.64002
1.7233
1.78721
1.83629
1.87398
1.90294
1.92521
1.94234
1.95552
1.96567
1.9735
1.97953
1.98419
1.98779
1.99058
1.99274
1.99441
1.99571
1.99673
1.99752
1.99814
1.99862
1.99899
1.99928
1.99948
1.99966
0.242349
0.650042
0.963318
1.20405
1.38887
1.53066
1.63942
1.72285
1.78689
1.83605
1.87381
1.90283
1.92514
1.94231
1.95551
1.96569
1.97353
1.97958
1.98424
1.98785
1.99064
1.99281
1.99448
1.99579
1.9968
1.99759
1.99821
1.99868
1.99905
1.99934
1.99954
1.99969
)
;

boundaryField
{ 
	left
	{
		type		KovasznayNeumannP;
		Re		5;
		value		nonuniform List<scalar>
32
(
-0.00601092
-0.00645675
-0.00561139
-0.00399556
-0.00202244
3.91995e-06
0.00179368
0.00309965
0.00375646
0.0037072
0.0030117
0.00183466
0.000415991
-0.000971126
-0.00206715
-0.00267023
-0.00267023
-0.00206715
-0.000971126
0.000415991
0.00183466
0.0030117
0.0037072
0.00375646
0.00309965
0.00179368
3.91994e-06
-0.00202244
-0.00399556
-0.00561139
-0.00645675
-0.00601092
)
;
	}
 
	right
	{
		type		KovasznayDirichletP;
		Re		5;
		value		uniform 0.499901;
	}
 
	frontAndBack
	{
		type		empty;
	}
 
	top
	{
		type		KovasznayNeumannP;
		Re		5;
		value		nonuniform List<scalar>
32
(
0.0605872
0.16251
0.240829
0.301012
0.347217
0.382664
0.409854
0.430713
0.446722
0.459013
0.468454
0.475708
0.481286
0.485576
0.488879
0.491422
0.493382
0.494894
0.496061
0.496963
0.497661
0.498201
0.498621
0.498946
0.4992
0.499397
0.499551
0.499671
0.499764
0.499835
0.499884
0.499922
)
;
	}
 
	bottom
	{
		type		KovasznayNeumannP;
		Re		5;
		value		nonuniform List<scalar>
32
(
0.0605872
0.16251
0.240829
0.301012
0.347217
0.382664
0.409854
0.430713
0.446722
0.459013
0.468454
0.475708
0.481286
0.485576
0.488879
0.491422
0.493382
0.494894
0.496061
0.496963
0.497661
0.498201
0.498621
0.498946
0.4992
0.499397
0.499551
0.499671
0.499764
0.499835
0.499884
0.499922
)
;
	}
}


